s 5.000000000 _1_ AGT  --- 0 tcp 40 [0 0 0 0] ------- [1:0 3:0 32 0] [0 0] 0 0
r 5.000000000 _1_ RTR  --- 0 tcp 40 [0 0 0 0] ------- [1:0 3:0 32 0] [0 0] 0 0
M 5.00000 0 (275.61, 0.00, 0.00), (66.50, 152.14), 20.00
M 5.00000 1 (132.54, 0.00, 0.00), (303.03, 455.85), 20.00
M 5.00000 2 (630.45, 0.00, 0.00), (194.19, 530.93), 20.00
M 5.00000 3 (570.60, 0.00, 0.00), (623.83, 381.40), 20.00
M 5.00000 4 (669.58, 0.00, 0.00), (717.33, 723.04), 20.00
M 5.00000 5 (716.90, 0.00, 0.00), (587.57, 708.05), 20.00
M 5.00000 6 (295.45, 0.00, 0.00), (695.36, 446.71), 20.00
M 5.00000 7 (37.98, 0.00, 0.00), (286.17, 638.49), 20.00
M 5.00000 8 (234.69, 0.00, 0.00), (120.19, 244.17), 20.00
M 5.00000 9 (199.10, 0.00, 0.00), (589.42, 455.56), 20.00
s 5.000000000 _1_ RTR  --- 0 AODV 48 [0 0 0 0] ------- [1:255 -1:255 30 0] [0x2 1 1 [3 0] [1 4]] (REQUEST)
r 5.000988222 _9_ RTR  --- 0 AODV 48 [0 ffffffff 1 800] ------- [1:255 -1:255 30 0] [0x2 1 1 [3 0] [1 4]] (REQUEST)
r 5.000988315 _7_ RTR  --- 0 AODV 48 [0 ffffffff 1 800] ------- [1:255 -1:255 30 0] [0x2 1 1 [3 0] [1 4]] (REQUEST)
r 5.000988340 _8_ RTR  --- 0 AODV 48 [0 ffffffff 1 800] ------- [1:255 -1:255 30 0] [0x2 1 1 [3 0] [1 4]] (REQUEST)
r 5.000988477 _0_ RTR  --- 0 AODV 48 [0 ffffffff 1 800] ------- [1:255 -1:255 30 0] [0x2 1 1 [3 0] [1 4]] (REQUEST)
r 5.000988543 _6_ RTR  --- 0 AODV 48 [0 ffffffff 1 800] ------- [1:255 -1:255 30 0] [0x2 1 1 [3 0] [1 4]] (REQUEST)
s 5.001869449 _9_ RTR  --- 0 AODV 48 [0 ffffffff 1 800] ------- [9:255 -1:255 29 0] [0x2 2 1 [3 0] [1 4]] (REQUEST)
r 5.003057567 _8_ RTR  --- 0 AODV 48 [0 ffffffff 9 800] ------- [9:255 -1:255 29 0] [0x2 2 1 [3 0] [1 4]] (REQUEST)
r 5.003057670 _1_ RTR  --- 0 AODV 48 [0 ffffffff 9 800] ------- [9:255 -1:255 29 0] [0x2 2 1 [3 0] [1 4]] (REQUEST)
r 5.003057703 _0_ RTR  --- 0 AODV 48 [0 ffffffff 9 800] ------- [9:255 -1:255 29 0] [0x2 2 1 [3 0] [1 4]] (REQUEST)
r 5.003057770 _6_ RTR  --- 0 AODV 48 [0 ffffffff 9 800] ------- [9:255 -1:255 29 0] [0x2 2 1 [3 0] [1 4]] (REQUEST)
r 5.003057986 _7_ RTR  --- 0 AODV 48 [0 ffffffff 9 800] ------- [9:255 -1:255 29 0] [0x2 2 1 [3 0] [1 4]] (REQUEST)
s 5.004118095 _0_ RTR  --- 0 AODV 48 [0 ffffffff 1 800] ------- [0:255 -1:255 29 0] [0x2 2 1 [3 0] [1 4]] (REQUEST)
r 5.005326161 _6_ RTR  --- 0 AODV 48 [0 ffffffff 0 800] ------- [0:255 -1:255 29 0] [0x2 2 1 [3 0] [1 4]] (REQUEST)
r 5.005326231 _8_ RTR  --- 0 AODV 48 [0 ffffffff 0 800] ------- [0:255 -1:255 29 0] [0x2 2 1 [3 0] [1 4]] (REQUEST)
r 5.005326349 _9_ RTR  --- 0 AODV 48 [0 ffffffff 0 800] ------- [0:255 -1:255 29 0] [0x2 2 1 [3 0] [1 4]] (REQUEST)
r 5.005326571 _1_ RTR  --- 0 AODV 48 [0 ffffffff 0 800] ------- [0:255 -1:255 29 0] [0x2 2 1 [3 0] [1 4]] (REQUEST)
r 5.005326886 _7_ RTR  --- 0 AODV 48 [0 ffffffff 0 800] ------- [0:255 -1:255 29 0] [0x2 2 1 [3 0] [1 4]] (REQUEST)
s 5.005400049 _7_ RTR  --- 0 AODV 48 [0 ffffffff 1 800] ------- [7:255 -1:255 29 0] [0x2 2 1 [3 0] [1 4]] (REQUEST)
r 5.006388364 _1_ RTR  --- 0 AODV 48 [0 ffffffff 7 800] ------- [7:255 -1:255 29 0] [0x2 2 1 [3 0] [1 4]] (REQUEST)
r 5.006388586 _9_ RTR  --- 0 AODV 48 [0 ffffffff 7 800] ------- [7:255 -1:255 29 0] [0x2 2 1 [3 0] [1 4]] (REQUEST)
r 5.006388704 _8_ RTR  --- 0 AODV 48 [0 ffffffff 7 800] ------- [7:255 -1:255 29 0] [0x2 2 1 [3 0] [1 4]] (REQUEST)
r 5.006388841 _0_ RTR  --- 0 AODV 48 [0 ffffffff 7 800] ------- [7:255 -1:255 29 0] [0x2 2 1 [3 0] [1 4]] (REQUEST)
s 5.008979895 _8_ RTR  --- 0 AODV 48 [0 ffffffff 1 800] ------- [8:255 -1:255 29 0] [0x2 2 1 [3 0] [1 4]] (REQUEST)
s 5.009153304 _6_ RTR  --- 0 AODV 48 [0 ffffffff 1 800] ------- [6:255 -1:255 29 0] [0x2 2 1 [3 0] [1 4]] (REQUEST)
r 5.010088013 _9_ RTR  --- 0 AODV 48 [0 ffffffff 8 800] ------- [8:255 -1:255 29 0] [0x2 2 1 [3 0] [1 4]] (REQUEST)
r 5.010088031 _0_ RTR  --- 0 AODV 48 [0 ffffffff 8 800] ------- [8:255 -1:255 29 0] [0x2 2 1 [3 0] [1 4]] (REQUEST)
r 5.010088098 _6_ RTR  --- 0 AODV 48 [0 ffffffff 8 800] ------- [8:255 -1:255 29 0] [0x2 2 1 [3 0] [1 4]] (REQUEST)
r 5.010088235 _1_ RTR  --- 0 AODV 48 [0 ffffffff 8 800] ------- [8:255 -1:255 29 0] [0x2 2 1 [3 0] [1 4]] (REQUEST)
r 5.010088550 _7_ RTR  --- 0 AODV 48 [0 ffffffff 8 800] ------- [8:255 -1:255 29 0] [0x2 2 1 [3 0] [1 4]] (REQUEST)
r 5.011346165 _0_ RTR  --- 0 AODV 48 [0 ffffffff 6 800] ------- [6:255 -1:255 29 0] [0x2 2 1 [3 0] [1 4]] (REQUEST)
r 5.011346302 _8_ RTR  --- 0 AODV 48 [0 ffffffff 6 800] ------- [6:255 -1:255 29 0] [0x2 2 1 [3 0] [1 4]] (REQUEST)
r 5.011346419 _9_ RTR  --- 0 AODV 48 [0 ffffffff 6 800] ------- [6:255 -1:255 29 0] [0x2 2 1 [3 0] [1 4]] (REQUEST)
r 5.011346641 _1_ RTR  --- 0 AODV 48 [0 ffffffff 6 800] ------- [6:255 -1:255 29 0] [0x2 2 1 [3 0] [1 4]] (REQUEST)
s 7.000000000 _1_ RTR  --- 0 AODV 48 [0 0 0 0] ------- [1:255 -1:255 30 0] [0x2 1 2 [3 0] [1 6]] (REQUEST)
r 7.001428237 _8_ RTR  --- 0 AODV 48 [0 ffffffff 1 800] ------- [1:255 -1:255 30 0] [0x2 1 2 [3 0] [1 6]] (REQUEST)
r 7.001428263 _9_ RTR  --- 0 AODV 48 [0 ffffffff 1 800] ------- [1:255 -1:255 30 0] [0x2 1 2 [3 0] [1 6]] (REQUEST)
r 7.001428314 _7_ RTR  --- 0 AODV 48 [0 ffffffff 1 800] ------- [1:255 -1:255 30 0] [0x2 1 2 [3 0] [1 6]] (REQUEST)
r 7.001428326 _0_ RTR  --- 0 AODV 48 [0 ffffffff 1 800] ------- [1:255 -1:255 30 0] [0x2 1 2 [3 0] [1 6]] (REQUEST)
r 7.001428586 _6_ RTR  --- 0 AODV 48 [0 ffffffff 1 800] ------- [1:255 -1:255 30 0] [0x2 1 2 [3 0] [1 6]] (REQUEST)
s 7.004009193 _7_ RTR  --- 0 AODV 48 [0 ffffffff 1 800] ------- [7:255 -1:255 29 0] [0x2 2 2 [3 0] [1 6]] (REQUEST)
s 7.004915673 _9_ RTR  --- 0 AODV 48 [0 ffffffff 1 800] ------- [9:255 -1:255 29 0] [0x2 2 2 [3 0] [1 6]] (REQUEST)
r 7.005397507 _1_ RTR  --- 0 AODV 48 [0 ffffffff 7 800] ------- [7:255 -1:255 29 0] [0x2 2 2 [3 0] [1 6]] (REQUEST)
r 7.005397744 _8_ RTR  --- 0 AODV 48 [0 ffffffff 7 800] ------- [7:255 -1:255 29 0] [0x2 2 2 [3 0] [1 6]] (REQUEST)
r 7.005397769 _9_ RTR  --- 0 AODV 48 [0 ffffffff 7 800] ------- [7:255 -1:255 29 0] [0x2 2 2 [3 0] [1 6]] (REQUEST)
r 7.005397830 _0_ RTR  --- 0 AODV 48 [0 ffffffff 7 800] ------- [7:255 -1:255 29 0] [0x2 2 2 [3 0] [1 6]] (REQUEST)
s 7.005515182 _0_ RTR  --- 0 AODV 48 [0 ffffffff 1 800] ------- [0:255 -1:255 29 0] [0x2 2 2 [3 0] [1 6]] (REQUEST)
r 7.006475801 _8_ RTR  --- 0 AODV 48 [0 ffffffff 9 800] ------- [9:255 -1:255 29 0] [0x2 2 2 [3 0] [1 6]] (REQUEST)
r 7.006475833 _0_ RTR  --- 0 AODV 48 [0 ffffffff 9 800] ------- [9:255 -1:255 29 0] [0x2 2 2 [3 0] [1 6]] (REQUEST)
r 7.006476032 _1_ RTR  --- 0 AODV 48 [0 ffffffff 9 800] ------- [9:255 -1:255 29 0] [0x2 2 2 [3 0] [1 6]] (REQUEST)
r 7.006476093 _6_ RTR  --- 0 AODV 48 [0 ffffffff 9 800] ------- [9:255 -1:255 29 0] [0x2 2 2 [3 0] [1 6]] (REQUEST)
r 7.006476345 _7_ RTR  --- 0 AODV 48 [0 ffffffff 9 800] ------- [9:255 -1:255 29 0] [0x2 2 2 [3 0] [1 6]] (REQUEST)
s 7.006615074 _6_ RTR  --- 0 AODV 48 [0 ffffffff 1 800] ------- [6:255 -1:255 29 0] [0x2 2 2 [3 0] [1 6]] (REQUEST)
r 7.007773897 _9_ RTR  --- 0 AODV 48 [0 ffffffff 0 800] ------- [0:255 -1:255 29 0] [0x2 2 2 [3 0] [1 6]] (REQUEST)
r 7.007773928 _8_ RTR  --- 0 AODV 48 [0 ffffffff 0 800] ------- [0:255 -1:255 29 0] [0x2 2 2 [3 0] [1 6]] (REQUEST)
r 7.007774098 _6_ RTR  --- 0 AODV 48 [0 ffffffff 0 800] ------- [0:255 -1:255 29 0] [0x2 2 2 [3 0] [1 6]] (REQUEST)
r 7.007774159 _1_ RTR  --- 0 AODV 48 [0 ffffffff 0 800] ------- [0:255 -1:255 29 0] [0x2 2 2 [3 0] [1 6]] (REQUEST)
r 7.007774470 _7_ RTR  --- 0 AODV 48 [0 ffffffff 0 800] ------- [0:255 -1:255 29 0] [0x2 2 2 [3 0] [1 6]] (REQUEST)
r 7.008832362 _0_ RTR  --- 0 AODV 48 [0 ffffffff 6 800] ------- [6:255 -1:255 29 0] [0x2 2 2 [3 0] [1 6]] (REQUEST)
r 7.008832421 _9_ RTR  --- 0 AODV 48 [0 ffffffff 6 800] ------- [6:255 -1:255 29 0] [0x2 2 2 [3 0] [1 6]] (REQUEST)
r 7.008832447 _8_ RTR  --- 0 AODV 48 [0 ffffffff 6 800] ------- [6:255 -1:255 29 0] [0x2 2 2 [3 0] [1 6]] (REQUEST)
r 7.008832684 _1_ RTR  --- 0 AODV 48 [0 ffffffff 6 800] ------- [6:255 -1:255 29 0] [0x2 2 2 [3 0] [1 6]] (REQUEST)
s 7.009498523 _8_ RTR  --- 0 AODV 48 [0 ffffffff 1 800] ------- [8:255 -1:255 29 0] [0x2 2 2 [3 0] [1 6]] (REQUEST)
r 7.010806555 _9_ RTR  --- 0 AODV 48 [0 ffffffff 8 800] ------- [8:255 -1:255 29 0] [0x2 2 2 [3 0] [1 6]] (REQUEST)
r 7.010806618 _0_ RTR  --- 0 AODV 48 [0 ffffffff 8 800] ------- [8:255 -1:255 29 0] [0x2 2 2 [3 0] [1 6]] (REQUEST)
r 7.010806759 _1_ RTR  --- 0 AODV 48 [0 ffffffff 8 800] ------- [8:255 -1:255 29 0] [0x2 2 2 [3 0] [1 6]] (REQUEST)
r 7.010806872 _6_ RTR  --- 0 AODV 48 [0 ffffffff 8 800] ------- [8:255 -1:255 29 0] [0x2 2 2 [3 0] [1 6]] (REQUEST)
r 7.010807073 _7_ RTR  --- 0 AODV 48 [0 ffffffff 8 800] ------- [8:255 -1:255 29 0] [0x2 2 2 [3 0] [1 6]] (REQUEST)
s 8.000000000 _1_ AGT  --- 1 tcp 40 [0 0 0 0] ------- [1:0 3:0 32 0] [0 0] 0 0
r 8.000000000 _1_ RTR  --- 1 tcp 40 [0 0 0 0] ------- [1:0 3:0 32 0] [0 0] 0 0
M 10.00000 0 (194.75, 58.83, 0.00), (613.31, 594.67), 20.00
M 10.00000 1 (167.57, 93.66, 0.00), (71.66, 647.60), 20.00
M 10.00000 2 (566.97, 77.26, 0.00), (144.29, 273.08), 20.00
M 10.00000 3 (584.42, 99.04, 0.00), (445.37, 370.08), 20.00
M 10.00000 4 (676.17, 99.78, 0.00), (144.14, 746.49), 20.00
M 10.00000 5 (698.93, 98.37, 0.00), (252.57, 737.21), 20.00
M 10.00000 6 (362.15, 74.51, 0.00), (278.06, 99.66), 20.00
M 10.00000 7 (74.21, 93.21, 0.00), (244.23, 38.47), 20.00
M 10.00000 8 (192.23, 90.54, 0.00), (122.36, 81.49), 20.00
M 10.00000 9 (264.16, 75.94, 0.00), (135.61, 25.17), 20.00
s 11.000000000 _1_ RTR  --- 0 AODV 48 [0 0 0 0] ------- [1:255 -1:255 30 0] [0x2 1 3 [3 0] [1 8]] (REQUEST)
r 11.001028089 _8_ RTR  --- 0 AODV 48 [0 ffffffff 1 800] ------- [1:255 -1:255 30 0] [0x2 1 3 [3 0] [1 8]] (REQUEST)
r 11.001028193 _0_ RTR  --- 0 AODV 48 [0 ffffffff 1 800] ------- [1:255 -1:255 30 0] [0x2 1 3 [3 0] [1 8]] (REQUEST)
r 11.001028252 _7_ RTR  --- 0 AODV 48 [0 ffffffff 1 800] ------- [1:255 -1:255 30 0] [0x2 1 3 [3 0] [1 8]] (REQUEST)
r 11.001028310 _9_ RTR  --- 0 AODV 48 [0 ffffffff 1 800] ------- [1:255 -1:255 30 0] [0x2 1 3 [3 0] [1 8]] (REQUEST)
r 11.001028606 _6_ RTR  --- 0 AODV 48 [0 ffffffff 1 800] ------- [1:255 -1:255 30 0] [0x2 1 3 [3 0] [1 8]] (REQUEST)
s 11.002901845 _0_ RTR  --- 0 AODV 48 [0 ffffffff 1 800] ------- [0:255 -1:255 29 0] [0x2 2 3 [3 0] [1 8]] (REQUEST)
r 11.004429969 _8_ RTR  --- 0 AODV 48 [0 ffffffff 0 800] ------- [0:255 -1:255 29 0] [0x2 2 3 [3 0] [1 8]] (REQUEST)
r 11.004429975 _9_ RTR  --- 0 AODV 48 [0 ffffffff 0 800] ------- [0:255 -1:255 29 0] [0x2 2 3 [3 0] [1 8]] (REQUEST)
r 11.004430038 _1_ RTR  --- 0 AODV 48 [0 ffffffff 0 800] ------- [0:255 -1:255 29 0] [0x2 2 3 [3 0] [1 8]] (REQUEST)
r 11.004430227 _7_ RTR  --- 0 AODV 48 [0 ffffffff 0 800] ------- [0:255 -1:255 29 0] [0x2 2 3 [3 0] [1 8]] (REQUEST)
r 11.004430298 _6_ RTR  --- 0 AODV 48 [0 ffffffff 0 800] ------- [0:255 -1:255 29 0] [0x2 2 3 [3 0] [1 8]] (REQUEST)
s 11.005070164 _8_ RTR  --- 0 AODV 48 [0 ffffffff 1 800] ------- [8:255 -1:255 29 0] [0x2 2 3 [3 0] [1 8]] (REQUEST)
r 11.006138254 _1_ RTR  --- 0 AODV 48 [0 ffffffff 8 800] ------- [8:255 -1:255 29 0] [0x2 2 3 [3 0] [1 8]] (REQUEST)
r 11.006138289 _0_ RTR  --- 0 AODV 48 [0 ffffffff 8 800] ------- [8:255 -1:255 29 0] [0x2 2 3 [3 0] [1 8]] (REQUEST)
r 11.006138417 _9_ RTR  --- 0 AODV 48 [0 ffffffff 8 800] ------- [8:255 -1:255 29 0] [0x2 2 3 [3 0] [1 8]] (REQUEST)
r 11.006138427 _7_ RTR  --- 0 AODV 48 [0 ffffffff 8 800] ------- [8:255 -1:255 29 0] [0x2 2 3 [3 0] [1 8]] (REQUEST)
r 11.006138734 _6_ RTR  --- 0 AODV 48 [0 ffffffff 8 800] ------- [8:255 -1:255 29 0] [0x2 2 3 [3 0] [1 8]] (REQUEST)
s 11.009902688 _7_ RTR  --- 0 AODV 48 [0 ffffffff 1 800] ------- [7:255 -1:255 29 0] [0x2 2 3 [3 0] [1 8]] (REQUEST)
s 11.009942084 _6_ RTR  --- 0 AODV 48 [0 ffffffff 1 800] ------- [6:255 -1:255 29 0] [0x2 2 3 [3 0] [1 8]] (REQUEST)
s 11.010490959 _9_ RTR  --- 0 AODV 48 [0 ffffffff 1 800] ------- [9:255 -1:255 29 0] [0x2 2 3 [3 0] [1 8]] (REQUEST)
r 11.011170412 _9_ RTR  --- 0 AODV 48 [0 ffffffff 6 800] ------- [6:255 -1:255 29 0] [0x2 2 3 [3 0] [1 8]] (REQUEST)
r 11.011170537 _0_ RTR  --- 0 AODV 48 [0 ffffffff 6 800] ------- [6:255 -1:255 29 0] [0x2 2 3 [3 0] [1 8]] (REQUEST)
r 11.011170654 _8_ RTR  --- 0 AODV 48 [0 ffffffff 6 800] ------- [6:255 -1:255 29 0] [0x2 2 3 [3 0] [1 8]] (REQUEST)
r 11.011170690 _1_ RTR  --- 0 AODV 48 [0 ffffffff 6 800] ------- [6:255 -1:255 29 0] [0x2 2 3 [3 0] [1 8]] (REQUEST)
r 11.011170771 _2_ RTR  --- 0 AODV 48 [0 ffffffff 6 800] ------- [6:255 -1:255 29 0] [0x2 2 3 [3 0] [1 8]] (REQUEST)
r 11.011170869 _3_ RTR  --- 0 AODV 48 [0 ffffffff 6 800] ------- [6:255 -1:255 29 0] [0x2 2 3 [3 0] [1 8]] (REQUEST)
s 11.011170869 _3_ RTR  --- 0 AODV 44 [0 0 0 0] ------- [3:255 1:255 30 6] [0x4 1 [3 4] 10.000000] (REPLY)
r 11.011170916 _7_ RTR  --- 0 AODV 48 [0 ffffffff 6 800] ------- [6:255 -1:255 29 0] [0x2 2 3 [3 0] [1 8]] (REQUEST)
r 11.015794360 _6_ RTR  --- 0 AODV 44 [13a 6 3 800] ------- [3:255 1:255 30 6] [0x4 1 [3 4] 10.000000] (REPLY)
f 11.015794360 _6_ RTR  --- 0 AODV 44 [13a 6 3 800] ------- [3:255 1:255 29 1] [0x4 2 [3 4] 10.000000] (REPLY)
r 11.017216815 _0_ RTR  --- 0 AODV 48 [0 ffffffff 9 800] ------- [9:255 -1:255 29 0] [0x2 2 3 [3 0] [1 8]] (REQUEST)
r 11.017217014 _6_ RTR  --- 0 AODV 48 [0 ffffffff 9 800] ------- [9:255 -1:255 29 0] [0x2 2 3 [3 0] [1 8]] (REQUEST)
s 11.018157503 _2_ RTR  --- 0 AODV 48 [0 ffffffff 6 800] ------- [2:255 -1:255 28 0] [0x2 3 3 [3 0] [1 8]] (REQUEST)
r 11.019478838 _3_ RTR  --- 0 AODV 48 [0 ffffffff 2 800] ------- [2:255 -1:255 28 0] [0x2 3 3 [3 0] [1 8]] (REQUEST)
r 11.019479096 _4_ RTR  --- 0 AODV 48 [0 ffffffff 2 800] ------- [2:255 -1:255 28 0] [0x2 3 3 [3 0] [1 8]] (REQUEST)
r 11.019479174 _5_ RTR  --- 0 AODV 48 [0 ffffffff 2 800] ------- [2:255 -1:255 28 0] [0x2 3 3 [3 0] [1 8]] (REQUEST)
r 11.019479387 _6_ RTR  --- 0 AODV 48 [0 ffffffff 2 800] ------- [2:255 -1:255 28 0] [0x2 3 3 [3 0] [1 8]] (REQUEST)
s 11.021266452 _5_ RTR  --- 0 AODV 48 [0 ffffffff 2 800] ------- [5:255 -1:255 27 0] [0x2 4 3 [3 0] [1 8]] (REQUEST)
r 11.023477617 _1_ RTR  --- 0 AODV 44 [13a 1 6 800] ------- [3:255 1:255 29 1] [0x4 2 [3 4] 10.000000] (REPLY)
s 11.023477617 _1_ RTR  --- 0 tcp 40 [0 0 0 0] ------- [1:0 3:0 30 6] [0 0] 0 0
r 11.025763433 _6_ RTR  --- 0 tcp 40 [13a 6 1 800] ------- [1:0 3:0 30 6] [0 0] 1 0
f 11.025763433 _6_ RTR  --- 0 tcp 40 [13a 6 1 800] ------- [1:0 3:0 29 3] [0 0] 1 0
s 11.026428469 _4_ RTR  --- 0 AODV 48 [0 ffffffff 2 800] ------- [4:255 -1:255 27 0] [0x2 4 3 [3 0] [1 8]] (REQUEST)
r 11.027789788 _3_ AGT  --- 0 tcp 40 [13a 3 6 800] ------- [1:0 3:0 29 3] [0 0] 2 0
s 11.027789788 _3_ AGT  --- 2 ack 40 [0 0 0 0] ------- [3:0 1:0 32 0] [0 0] 0 0
r 11.027789788 _3_ RTR  --- 2 ack 40 [0 0 0 0] ------- [3:0 1:0 32 0] [0 0] 0 0
s 11.027789788 _3_ RTR  --- 2 ack 40 [0 0 0 0] ------- [3:0 1:0 30 6] [0 0] 0 0
r 11.029092238 _4_ RTR  --- 0 AODV 48 [0 ffffffff 5 800] ------- [5:255 -1:255 27 0] [0x2 4 3 [3 0] [1 8]] (REQUEST)
r 11.029092532 _3_ RTR  --- 0 AODV 48 [0 ffffffff 5 800] ------- [5:255 -1:255 27 0] [0x2 4 3 [3 0] [1 8]] (REQUEST)
r 11.029092631 _2_ RTR  --- 0 AODV 48 [0 ffffffff 5 800] ------- [5:255 -1:255 27 0] [0x2 4 3 [3 0] [1 8]] (REQUEST)
r 11.030030318 _5_ RTR  --- 0 AODV 48 [0 ffffffff 4 800] ------- [4:255 -1:255 27 0] [0x2 4 3 [3 0] [1 8]] (REQUEST)
r 11.030030531 _3_ RTR  --- 0 AODV 48 [0 ffffffff 4 800] ------- [4:255 -1:255 27 0] [0x2 4 3 [3 0] [1 8]] (REQUEST)
r 11.030030633 _2_ RTR  --- 0 AODV 48 [0 ffffffff 4 800] ------- [4:255 -1:255 27 0] [0x2 4 3 [3 0] [1 8]] (REQUEST)
r 11.031702887 _6_ RTR  --- 2 ack 40 [13a 6 3 800] ------- [3:0 1:0 30 6] [0 0] 1 0
f 11.031702887 _6_ RTR  --- 2 ack 40 [13a 6 3 800] ------- [3:0 1:0 29 1] [0 0] 1 0
s 11.033477617 _1_ RTR  --- 1 tcp 40 [0 0 0 0] ------- [1:0 3:0 30 6] [0 0] 0 0
r 11.033648701 _1_ AGT  --- 2 ack 40 [13a 1 6 800] ------- [3:0 1:0 29 1] [0 0] 2 0
s 11.033648701 _1_ AGT  --- 3 tcp 1040 [0 0 0 0] ------- [1:0 3:0 32 0] [1 0] 0 0
r 11.033648701 _1_ RTR  --- 3 tcp 1040 [0 0 0 0] ------- [1:0 3:0 32 0] [1 0] 0 0
s 11.033648701 _1_ RTR  --- 3 tcp 1040 [0 0 0 0] ------- [1:0 3:0 30 6] [1 0] 0 0
r 11.035594516 _6_ RTR  --- 1 tcp 40 [13a 6 1 800] ------- [1:0 3:0 30 6] [0 0] 1 0
f 11.035594516 _6_ RTR  --- 1 tcp 40 [13a 6 1 800] ------- [1:0 3:0 29 3] [0 0] 1 0
r 11.045540934 _6_ RTR  --- 3 tcp 1040 [13a 6 1 800] ------- [1:0 3:0 30 6] [1 0] 1 0
f 11.045540934 _6_ RTR  --- 3 tcp 1040 [13a 6 1 800] ------- [1:0 3:0 29 3] [1 0] 1 0
r 11.047827292 _3_ AGT  --- 1 tcp 40 [13a 3 6 800] ------- [1:0 3:0 29 3] [0 0] 2 0
s 11.047827292 _3_ AGT  --- 4 ack 40 [0 0 0 0] ------- [3:0 1:0 32 0] [0 0] 0 0
r 11.047827292 _3_ RTR  --- 4 ack 40 [0 0 0 0] ------- [3:0 1:0 32 0] [0 0] 0 0
s 11.047827292 _3_ RTR  --- 4 ack 40 [0 0 0 0] ------- [3:0 1:0 30 6] [0 0] 0 0
r 11.049673649 _6_ RTR  --- 4 ack 40 [13a 6 3 800] ------- [3:0 1:0 30 6] [0 0] 1 0
f 11.049673649 _6_ RTR  --- 4 ack 40 [13a 6 3 800] ------- [3:0 1:0 29 1] [0 0] 1 0
r 11.059920007 _3_ AGT  --- 3 tcp 1040 [13a 3 6 800] ------- [1:0 3:0 29 3] [1 0] 2 0
s 11.059920007 _3_ AGT  --- 5 ack 40 [0 0 0 0] ------- [3:0 1:0 32 0] [1 0] 0 0
r 11.059920007 _3_ RTR  --- 5 ack 40 [0 0 0 0] ------- [3:0 1:0 32 0] [1 0] 0 0
s 11.059920007 _3_ RTR  --- 5 ack 40 [0 0 0 0] ------- [3:0 1:0 30 6] [1 0] 0 0
r 11.061866365 _6_ RTR  --- 5 ack 40 [13a 6 3 800] ------- [3:0 1:0 30 6] [1 0] 1 0
f 11.061866365 _6_ RTR  --- 5 ack 40 [13a 6 3 800] ------- [3:0 1:0 29 1] [1 0] 1 0
r 11.063872176 _1_ AGT  --- 4 ack 40 [13a 1 6 800] ------- [3:0 1:0 29 1] [0 0] 2 0
s 11.063872176 _1_ AGT  --- 6 tcp 1040 [0 0 0 0] ------- [1:0 3:0 32 0] [2 0] 0 0
r 11.063872176 _1_ RTR  --- 6 tcp 1040 [0 0 0 0] ------- [1:0 3:0 32 0] [2 0] 0 0
s 11.063872176 _1_ RTR  --- 6 tcp 1040 [0 0 0 0] ------- [1:0 3:0 30 6] [2 0] 0 0
r 11.073997986 _6_ RTR  --- 6 tcp 1040 [13a 6 1 800] ------- [1:0 3:0 30 6] [2 0] 1 0
f 11.073997986 _6_ RTR  --- 6 tcp 1040 [13a 6 1 800] ------- [1:0 3:0 29 3] [2 0] 1 0
r 11.075883796 _1_ AGT  --- 5 ack 40 [13a 1 6 800] ------- [3:0 1:0 29 1] [1 0] 2 0
s 11.075883796 _1_ AGT  --- 7 tcp 1040 [0 0 0 0] ------- [1:0 3:0 32 0] [3 0] 0 0
r 11.075883796 _1_ RTR  --- 7 tcp 1040 [0 0 0 0] ------- [1:0 3:0 32 0] [3 0] 0 0
s 11.075883796 _1_ RTR  --- 7 tcp 1040 [0 0 0 0] ------- [1:0 3:0 30 6] [3 0] 0 0
r 11.085930759 _3_ AGT  --- 6 tcp 1040 [13a 3 6 800] ------- [1:0 3:0 29 3] [2 0] 2 0
s 11.085930759 _3_ AGT  --- 8 ack 40 [0 0 0 0] ------- [3:0 1:0 32 0] [2 0] 0 0
r 11.085930759 _3_ RTR  --- 8 ack 40 [0 0 0 0] ------- [3:0 1:0 32 0] [2 0] 0 0
s 11.085930759 _3_ RTR  --- 8 ack 40 [0 0 0 0] ------- [3:0 1:0 30 6] [2 0] 0 0
r 11.087877121 _6_ RTR  --- 8 ack 40 [13a 6 3 800] ------- [3:0 1:0 30 6] [2 0] 1 0
f 11.087877121 _6_ RTR  --- 8 ack 40 [13a 6 3 800] ------- [3:0 1:0 29 1] [2 0] 1 0
r 11.089762929 _1_ AGT  --- 8 ack 40 [13a 1 6 800] ------- [3:0 1:0 29 1] [2 0] 2 0
s 11.089762929 _1_ AGT  --- 9 tcp 1040 [0 0 0 0] ------- [1:0 3:0 32 0] [4 0] 0 0
r 11.089762929 _1_ RTR  --- 9 tcp 1040 [0 0 0 0] ------- [1:0 3:0 32 0] [4 0] 0 0
s 11.089762929 _1_ RTR  --- 9 tcp 1040 [0 0 0 0] ------- [1:0 3:0 30 6] [4 0] 0 0
r 11.099948736 _6_ RTR  --- 7 tcp 1040 [13a 6 1 800] ------- [1:0 3:0 30 6] [3 0] 1 0
f 11.099948736 _6_ RTR  --- 7 tcp 1040 [13a 6 1 800] ------- [1:0 3:0 29 3] [3 0] 1 0
r 11.109875099 _3_ AGT  --- 7 tcp 1040 [13a 3 6 800] ------- [1:0 3:0 29 3] [3 0] 2 0
s 11.109875099 _3_ AGT  --- 10 ack 40 [0 0 0 0] ------- [3:0 1:0 32 0] [3 0] 0 0
r 11.109875099 _3_ RTR  --- 10 ack 40 [0 0 0 0] ------- [3:0 1:0 32 0] [3 0] 0 0
s 11.109875099 _3_ RTR  --- 10 ack 40 [0 0 0 0] ------- [3:0 1:0 30 6] [3 0] 0 0
r 11.111761464 _6_ RTR  --- 10 ack 40 [13a 6 3 800] ------- [3:0 1:0 30 6] [3 0] 1 0
f 11.111761464 _6_ RTR  --- 10 ack 40 [13a 6 3 800] ------- [3:0 1:0 29 1] [3 0] 1 0
r 11.113647268 _1_ AGT  --- 10 ack 40 [13a 1 6 800] ------- [3:0 1:0 29 1] [3 0] 2 0
s 11.113647268 _1_ AGT  --- 11 tcp 1040 [0 0 0 0] ------- [1:0 3:0 32 0] [5 0] 0 0
r 11.113647268 _1_ RTR  --- 11 tcp 1040 [0 0 0 0] ------- [1:0 3:0 32 0] [5 0] 0 0
s 11.113647268 _1_ RTR  --- 11 tcp 1040 [0 0 0 0] ------- [1:0 3:0 30 6] [5 0] 0 0
r 11.123793072 _6_ RTR  --- 9 tcp 1040 [13a 6 1 800] ------- [1:0 3:0 30 6] [4 0] 1 0
f 11.123793072 _6_ RTR  --- 9 tcp 1040 [13a 6 1 800] ------- [1:0 3:0 29 3] [4 0] 1 0
r 11.133619439 _3_ AGT  --- 9 tcp 1040 [13a 3 6 800] ------- [1:0 3:0 29 3] [4 0] 2 0
s 11.133619439 _3_ AGT  --- 12 ack 40 [0 0 0 0] ------- [3:0 1:0 32 0] [4 0] 0 0
r 11.133619439 _3_ RTR  --- 12 ack 40 [0 0 0 0] ------- [3:0 1:0 32 0] [4 0] 0 0
s 11.133619439 _3_ RTR  --- 12 ack 40 [0 0 0 0] ------- [3:0 1:0 30 6] [4 0] 0 0
r 11.135545806 _6_ RTR  --- 12 ack 40 [13a 6 3 800] ------- [3:0 1:0 30 6] [4 0] 1 0
f 11.135545806 _6_ RTR  --- 12 ack 40 [13a 6 3 800] ------- [3:0 1:0 29 1] [4 0] 1 0
r 11.145562186 _6_ RTR  --- 11 tcp 1040 [13a 6 1 800] ------- [1:0 3:0 30 6] [5 0] 1 0
f 11.145562186 _6_ RTR  --- 11 tcp 1040 [13a 6 1 800] ------- [1:0 3:0 29 3] [5 0] 1 0
r 11.147467986 _1_ AGT  --- 12 ack 40 [13a 1 6 800] ------- [3:0 1:0 29 1] [4 0] 2 0
s 11.147467986 _1_ AGT  --- 13 tcp 1040 [0 0 0 0] ------- [1:0 3:0 32 0] [6 0] 0 0
r 11.147467986 _1_ RTR  --- 13 tcp 1040 [0 0 0 0] ------- [1:0 3:0 32 0] [6 0] 0 0
s 11.147467986 _1_ AGT  --- 14 tcp 1040 [0 0 0 0] ------- [1:0 3:0 32 0] [7 0] 0 0
r 11.147467986 _1_ RTR  --- 14 tcp 1040 [0 0 0 0] ------- [1:0 3:0 32 0] [7 0] 0 0
s 11.147467986 _1_ RTR  --- 13 tcp 1040 [0 0 0 0] ------- [1:0 3:0 30 6] [6 0] 0 0
s 11.147467986 _1_ RTR  --- 14 tcp 1040 [0 0 0 0] ------- [1:0 3:0 30 6] [7 0] 0 0
r 11.157653786 _6_ RTR  --- 13 tcp 1040 [13a 6 1 800] ------- [1:0 3:0 30 6] [6 0] 1 0
f 11.157653786 _6_ RTR  --- 13 tcp 1040 [13a 6 1 800] ------- [1:0 3:0 29 3] [6 0] 1 0
r 11.167640156 _3_ AGT  --- 11 tcp 1040 [13a 3 6 800] ------- [1:0 3:0 29 3] [5 0] 2 0
s 11.167640156 _3_ AGT  --- 15 ack 40 [0 0 0 0] ------- [3:0 1:0 32 0] [5 0] 0 0
r 11.167640156 _3_ RTR  --- 15 ack 40 [0 0 0 0] ------- [3:0 1:0 32 0] [5 0] 0 0
s 11.167640156 _3_ RTR  --- 15 ack 40 [0 0 0 0] ------- [3:0 1:0 30 6] [5 0] 0 0
r 11.169486528 _6_ RTR  --- 15 ack 40 [13a 6 3 800] ------- [3:0 1:0 30 6] [5 0] 1 0
f 11.169486528 _6_ RTR  --- 15 ack 40 [13a 6 3 800] ------- [3:0 1:0 29 1] [5 0] 1 0
r 11.179452900 _3_ AGT  --- 13 tcp 1040 [13a 3 6 800] ------- [1:0 3:0 29 3] [6 0] 2 0
s 11.179452900 _3_ AGT  --- 16 ack 40 [0 0 0 0] ------- [3:0 1:0 32 0] [6 0] 0 0
r 11.179452900 _3_ RTR  --- 16 ack 40 [0 0 0 0] ------- [3:0 1:0 32 0] [6 0] 0 0
s 11.179452900 _3_ RTR  --- 16 ack 40 [0 0 0 0] ------- [3:0 1:0 30 6] [6 0] 0 0
r 11.181379486 _1_ AGT  --- 15 ack 40 [13a 1 6 800] ------- [3:0 1:0 29 1] [5 0] 2 0
s 11.181379486 _1_ AGT  --- 17 tcp 1040 [0 0 0 0] ------- [1:0 3:0 32 0] [8 0] 0 0
r 11.181379486 _1_ RTR  --- 17 tcp 1040 [0 0 0 0] ------- [1:0 3:0 32 0] [8 0] 0 0
s 11.181379486 _1_ RTR  --- 17 tcp 1040 [0 0 0 0] ------- [1:0 3:0 30 6] [8 0] 0 0
r 11.191305282 _6_ RTR  --- 14 tcp 1040 [13a 6 1 800] ------- [1:0 3:0 30 6] [7 0] 1 0
f 11.191305282 _6_ RTR  --- 14 tcp 1040 [13a 6 1 800] ------- [1:0 3:0 29 3] [7 0] 1 0
r 11.201191656 _3_ AGT  --- 14 tcp 1040 [13a 3 6 800] ------- [1:0 3:0 29 3] [7 0] 2 0
s 11.201191656 _3_ AGT  --- 18 ack 40 [0 0 0 0] ------- [3:0 1:0 32 0] [7 0] 0 0
r 11.201191656 _3_ RTR  --- 18 ack 40 [0 0 0 0] ------- [3:0 1:0 32 0] [7 0] 0 0
s 11.201191656 _3_ RTR  --- 18 ack 40 [0 0 0 0] ------- [3:0 1:0 30 6] [7 0] 0 0
r 11.203178032 _6_ RTR  --- 16 ack 40 [13a 6 3 800] ------- [3:0 1:0 30 6] [6 0] 1 0
f 11.203178032 _6_ RTR  --- 16 ack 40 [13a 6 3 800] ------- [3:0 1:0 29 1] [6 0] 1 0
r 11.205425199 _6_ RTR  --- 18 ack 40 [13a 6 3 800] ------- [3:0 1:0 30 6] [7 0] 1 0
f 11.205425199 _6_ RTR  --- 18 ack 40 [13a 6 3 800] ------- [3:0 1:0 29 1] [7 0] 1 0
r 11.207270992 _1_ AGT  --- 16 ack 40 [13a 1 6 800] ------- [3:0 1:0 29 1] [6 0] 2 0
s 11.207270992 _1_ AGT  --- 19 tcp 1040 [0 0 0 0] ------- [1:0 3:0 32 0] [9 0] 0 0
r 11.207270992 _1_ RTR  --- 19 tcp 1040 [0 0 0 0] ------- [1:0 3:0 32 0] [9 0] 0 0
s 11.207270992 _1_ RTR  --- 19 tcp 1040 [0 0 0 0] ------- [1:0 3:0 30 6] [9 0] 0 0
r 11.209117381 _1_ AGT  --- 18 ack 40 [13a 1 6 800] ------- [3:0 1:0 29 1] [7 0] 2 0
s 11.209117381 _1_ AGT  --- 20 tcp 1040 [0 0 0 0] ------- [1:0 3:0 32 0] [10 0] 0 0
r 11.209117381 _1_ RTR  --- 20 tcp 1040 [0 0 0 0] ------- [1:0 3:0 32 0] [10 0] 0 0
s 11.209117381 _1_ AGT  --- 21 tcp 1040 [0 0 0 0] ------- [1:0 3:0 32 0] [11 0] 0 0
r 11.209117381 _1_ RTR  --- 21 tcp 1040 [0 0 0 0] ------- [1:0 3:0 32 0] [11 0] 0 0
s 11.209117381 _1_ RTR  --- 20 tcp 1040 [0 0 0 0] ------- [1:0 3:0 30 6] [10 0] 0 0
s 11.209117381 _1_ RTR  --- 21 tcp 1040 [0 0 0 0] ------- [1:0 3:0 30 6] [11 0] 0 0
r 11.219043173 _6_ RTR  --- 17 tcp 1040 [13a 6 1 800] ------- [1:0 3:0 30 6] [8 0] 1 0
f 11.219043173 _6_ RTR  --- 17 tcp 1040 [13a 6 1 800] ------- [1:0 3:0 29 3] [8 0] 1 0
r 11.228889561 _6_ RTR  --- 19 tcp 1040 [13a 6 1 800] ------- [1:0 3:0 30 6] [9 0] 1 0
f 11.228889561 _6_ RTR  --- 19 tcp 1040 [13a 6 1 800] ------- [1:0 3:0 29 3] [9 0] 1 0
r 11.238735947 _6_ RTR  --- 20 tcp 1040 [13a 6 1 800] ------- [1:0 3:0 30 6] [10 0] 1 0
f 11.238735947 _6_ RTR  --- 20 tcp 1040 [13a 6 1 800] ------- [1:0 3:0 29 3] [10 0] 1 0
r 11.248782327 _3_ AGT  --- 17 tcp 1040 [13a 3 6 800] ------- [1:0 3:0 29 3] [8 0] 2 0
s 11.248782327 _3_ AGT  --- 22 ack 40 [0 0 0 0] ------- [3:0 1:0 32 0] [8 0] 0 0
r 11.248782327 _3_ RTR  --- 22 ack 40 [0 0 0 0] ------- [3:0 1:0 32 0] [8 0] 0 0
s 11.248782327 _3_ RTR  --- 22 ack 40 [0 0 0 0] ------- [3:0 1:0 30 6] [8 0] 0 0
r 11.258989502 _3_ AGT  --- 19 tcp 1040 [13a 3 6 800] ------- [1:0 3:0 29 3] [9 0] 2 0
s 11.258989502 _3_ AGT  --- 23 ack 40 [0 0 0 0] ------- [3:0 1:0 32 0] [9 0] 0 0
r 11.258989502 _3_ RTR  --- 23 ack 40 [0 0 0 0] ------- [3:0 1:0 32 0] [9 0] 0 0
s 11.258989502 _3_ RTR  --- 23 ack 40 [0 0 0 0] ------- [3:0 1:0 30 6] [9 0] 0 0
r 11.260875884 _6_ RTR  --- 22 ack 40 [13a 6 3 800] ------- [3:0 1:0 30 6] [8 0] 1 0
f 11.260875884 _6_ RTR  --- 22 ack 40 [13a 6 3 800] ------- [3:0 1:0 29 1] [8 0] 1 0
r 11.270932241 _6_ RTR  --- 21 tcp 1040 [13a 6 1 800] ------- [1:0 3:0 30 6] [11 0] 1 0
f 11.270932241 _6_ RTR  --- 21 tcp 1040 [13a 6 1 800] ------- [1:0 3:0 29 3] [11 0] 1 0
r 11.272909395 _6_ RTR  --- 23 ack 40 [13a 6 3 800] ------- [3:0 1:0 30 6] [9 0] 1 0
f 11.272909395 _6_ RTR  --- 23 ack 40 [13a 6 3 800] ------- [3:0 1:0 29 1] [9 0] 1 0
r 11.282795779 _3_ AGT  --- 20 tcp 1040 [13a 3 6 800] ------- [1:0 3:0 29 3] [10 0] 2 0
s 11.282795779 _3_ AGT  --- 24 ack 40 [0 0 0 0] ------- [3:0 1:0 32 0] [10 0] 0 0
r 11.282795779 _3_ RTR  --- 24 ack 40 [0 0 0 0] ------- [3:0 1:0 32 0] [10 0] 0 0
s 11.282795779 _3_ RTR  --- 24 ack 40 [0 0 0 0] ------- [3:0 1:0 30 6] [10 0] 0 0
r 11.284802357 _1_ AGT  --- 22 ack 40 [13a 1 6 800] ------- [3:0 1:0 29 1] [8 0] 2 0
s 11.284802357 _1_ AGT  --- 25 tcp 1040 [0 0 0 0] ------- [1:0 3:0 32 0] [12 0] 0 0
r 11.284802357 _1_ RTR  --- 25 tcp 1040 [0 0 0 0] ------- [1:0 3:0 32 0] [12 0] 0 0
s 11.284802357 _1_ RTR  --- 25 tcp 1040 [0 0 0 0] ------- [1:0 3:0 30 6] [12 0] 0 0
r 11.294668140 _6_ RTR  --- 25 tcp 1040 [13a 6 1 800] ------- [1:0 3:0 30 6] [12 0] 1 0
f 11.294668140 _6_ RTR  --- 25 tcp 1040 [13a 6 1 800] ------- [1:0 3:0 29 3] [12 0] 1 0
r 11.304614526 _3_ AGT  --- 21 tcp 1040 [13a 3 6 800] ------- [1:0 3:0 29 3] [11 0] 2 0
s 11.304614526 _3_ AGT  --- 26 ack 40 [0 0 0 0] ------- [3:0 1:0 32 0] [11 0] 0 0
r 11.304614526 _3_ RTR  --- 26 ack 40 [0 0 0 0] ------- [3:0 1:0 32 0] [11 0] 0 0
s 11.304614526 _3_ RTR  --- 26 ack 40 [0 0 0 0] ------- [3:0 1:0 30 6] [11 0] 0 0
r 11.306441102 _1_ AGT  --- 23 ack 40 [13a 1 6 800] ------- [3:0 1:0 29 1] [9 0] 2 0
s 11.306441102 _1_ AGT  --- 27 tcp 1040 [0 0 0 0] ------- [1:0 3:0 32 0] [13 0] 0 0
r 11.306441102 _1_ RTR  --- 27 tcp 1040 [0 0 0 0] ------- [1:0 3:0 32 0] [13 0] 0 0
s 11.306441102 _1_ RTR  --- 27 tcp 1040 [0 0 0 0] ------- [1:0 3:0 30 6] [13 0] 0 0
r 11.316368084 _3_ AGT  --- 25 tcp 1040 [13a 3 6 800] ------- [1:0 3:0 29 3] [12 0] 2 0
s 11.316368084 _3_ AGT  --- 28 ack 40 [0 0 0 0] ------- [3:0 1:0 32 0] [12 0] 0 0
r 11.316368084 _3_ RTR  --- 28 ack 40 [0 0 0 0] ------- [3:0 1:0 32 0] [12 0] 0 0
s 11.316368084 _3_ RTR  --- 28 ack 40 [0 0 0 0] ------- [3:0 1:0 30 6] [12 0] 0 0
r 11.318434473 _6_ RTR  --- 24 ack 40 [13a 6 3 800] ------- [3:0 1:0 30 6] [10 0] 1 0
f 11.318434473 _6_ RTR  --- 24 ack 40 [13a 6 3 800] ------- [3:0 1:0 29 1] [10 0] 1 0
r 11.328350819 _6_ RTR  --- 27 tcp 1040 [13a 6 1 800] ------- [1:0 3:0 30 6] [13 0] 1 0
f 11.328350819 _6_ RTR  --- 27 tcp 1040 [13a 6 1 800] ------- [1:0 3:0 29 3] [13 0] 1 0
r 11.330636596 _1_ AGT  --- 24 ack 40 [13a 1 6 800] ------- [3:0 1:0 29 1] [10 0] 2 0
s 11.330636596 _1_ AGT  --- 29 tcp 1040 [0 0 0 0] ------- [1:0 3:0 32 0] [14 0] 0 0
r 11.330636596 _1_ RTR  --- 29 tcp 1040 [0 0 0 0] ------- [1:0 3:0 32 0] [14 0] 0 0
s 11.330636596 _1_ RTR  --- 29 tcp 1040 [0 0 0 0] ------- [1:0 3:0 30 6] [14 0] 0 0
r 11.340602373 _6_ RTR  --- 29 tcp 1040 [13a 6 1 800] ------- [1:0 3:0 30 6] [14 0] 1 0
f 11.340602373 _6_ RTR  --- 29 tcp 1040 [13a 6 1 800] ------- [1:0 3:0 29 3] [14 0] 1 0
r 11.342559537 _6_ RTR  --- 26 ack 40 [13a 6 3 800] ------- [3:0 1:0 30 6] [11 0] 1 0
f 11.342559537 _6_ RTR  --- 26 ack 40 [13a 6 3 800] ------- [3:0 1:0 29 1] [11 0] 1 0
r 11.352725929 _3_ AGT  --- 27 tcp 1040 [13a 3 6 800] ------- [1:0 3:0 29 3] [13 0] 2 0
s 11.352725929 _3_ AGT  --- 30 ack 40 [0 0 0 0] ------- [3:0 1:0 32 0] [13 0] 0 0
r 11.352725929 _3_ RTR  --- 30 ack 40 [0 0 0 0] ------- [3:0 1:0 32 0] [13 0] 0 0
s 11.352725929 _3_ RTR  --- 30 ack 40 [0 0 0 0] ------- [3:0 1:0 30 6] [13 0] 0 0
r 11.362693121 _3_ AGT  --- 29 tcp 1040 [13a 3 6 800] ------- [1:0 3:0 29 3] [14 0] 2 0
s 11.362693121 _3_ AGT  --- 31 ack 40 [0 0 0 0] ------- [3:0 1:0 32 0] [14 0] 0 0
r 11.362693121 _3_ RTR  --- 31 ack 40 [0 0 0 0] ------- [3:0 1:0 32 0] [14 0] 0 0
s 11.362693121 _3_ RTR  --- 31 ack 40 [0 0 0 0] ------- [3:0 1:0 30 6] [14 0] 0 0
r 11.364559516 _6_ RTR  --- 28 ack 40 [13a 6 3 800] ------- [3:0 1:0 30 6] [12 0] 1 0
f 11.364559516 _6_ RTR  --- 28 ack 40 [13a 6 3 800] ------- [3:0 1:0 29 1] [12 0] 1 0